 Gaussian 16, Revision B.01,

 ---------------------
 #p B3LYP/6-31G(d) Opt
 ---------------------

 ----------------------------------
 Optimization of molecular geometry
 ----------------------------------
 Symbolic Z-matrix:
 Charge =  0 Multiplicity = 1

 SCF Done:  E(RB3LYP) =  -941.070076700     A.U. after   12 cycles
 SCF Done:  E(RB3LYP) =  -941.072639389     A.U. after   11 cycles
 SCF Done:  E(RB3LYP) =  -941.072949853     A.U. after   10 cycles
 SCF Done:  E(RB3LYP) =  -941.072935005     A.U. after    9 cycles
 SCF Done:  E(RB3LYP) =  -941.073123553     A.U. after    9 cycles
 SCF Done:  E(RB3LYP) =  -941.073138473     A.U. after    9 cycles
 SCF Done:  E(RB3LYP) =  -941.073143672     A.U. after    8 cycles
 SCF Done:  E(RB3LYP) =  -941.073144889     A.U. after    7 cycles
 SCF Done:  E(RB3LYP) =  -941.073145073     A.U. after    6 cycles
 SCF Done:  E(RB3LYP) =  -941.073145132     A.U. after    5 cycles
 Optimization completed.
    -- Stationary point found.
 Normal termination of Gaussian 16 at Tue Oct 14 15:51:23 2025.
 Gaussian 16:  EM64L-G16RevB.01 20-Dec-2017

 ----------------------------------------------
 #n B3LYP/6-311+G(2d,p) POP=NBO Geom=Checkpoint
 ----------------------------------------------

 ---------------------------
 Calculations of NBO charges
 ---------------------------
 Structure from the checkpoint file:  "C24-nbo.chk"
 Charge =  0 Multiplicity = 1

                         Standard orientation:
 ---------------------------------------------------------------------
 Center     Atomic      Atomic             Coordinates (Angstroms)
 Number     Number       Type             X           Y           Z
 ---------------------------------------------------------------------
      1          6           0       -4.243799    0.860723   -1.398794
      2          6           0       -4.826870   -0.224903   -0.493119
      3          6           0       -3.795750   -1.351992   -0.198829
      4          6           0       -2.330694   -0.770868   -0.240791
      5          6           0       -2.168032    0.721203    0.202400
      6          6           0       -3.070139    1.609003   -0.730776
      7          6           0       -2.607100    0.968375    1.665963
      8          6           0       -0.665802    1.139615   -0.044577
      9          6           0       -0.376930    2.619482    0.268799
     10          6           0        0.963644    3.051460   -0.331282
     11          6           0        2.140225    2.158985    0.097721
     12          6           0        3.417471    2.631919   -0.615134
     13          6           0        1.824388    0.655685   -0.140010
     14          6           0        0.465358    0.213684    0.535035
     15          6           0        0.142332   -1.241424    0.109927
     16          6           0       -1.291028   -1.678913    0.433819
     17          6           0        0.607363    0.273406    2.075090
     18          6           0        3.031873   -0.253253    0.241109
     19          6           0        3.813703   -0.778467   -0.976788
     20          6           0        5.045515   -1.662402   -0.673031
     21          6           0        4.680448   -2.957042    0.070627
     22          6           0        6.157376   -0.898544    0.063841
     23          6           0       -3.915715   -2.419416   -1.311230
     24          6           0       -4.160231   -2.027759    1.139733
     25          1           0       -3.906751    0.401283   -2.337785
     26          1           0       -5.021109    1.581140   -1.682753
     27          1           0       -5.721608   -0.666621   -0.952061
     28          1           0       -5.169016    0.232537    0.444149
     29          1           0       -2.060034   -0.763177   -1.309067
     30          1           0       -2.459971    2.060198   -1.522829
     31          1           0       -3.468560    2.447625   -0.145933
     32          1           0       -2.172542    0.259329    2.373857
     33          1           0       -3.693380    0.906792    1.770354
     34          1           0       -2.318365    1.973868    1.990332
     35          1           0       -0.550671    1.040065   -1.137147
     36          1           0       -0.366253    2.794865    1.351522
     37          1           0       -1.172515    3.257993   -0.131329
     38          1           0        0.887156    3.026654   -1.429623
     39          1           0        1.179968    4.094937   -0.063712
     40          1           0        2.297157    2.299771    1.178389
     41          1           0        3.335078    2.496311   -1.701432
     42          1           0        3.582350    3.700420   -0.429551
     43          1           0        4.312179    2.099860   -0.277731
     44          1           0        1.660749    0.541074   -1.224248
     45          1           0        0.296227   -1.333613   -0.975876
     46          1           0        0.842706   -1.942308    0.579899
     47          1           0       -1.443438   -1.701079    1.519441
     48          1           0       -1.423440   -2.714358    0.095515
     49          1           0        1.529948   -0.224604    2.392439
     50          1           0       -0.213549   -0.233697    2.586360
     51          1           0        0.644893    1.296040    2.460240
     52          1           0        3.706370    0.296460    0.909609
     53          1           0        2.689594   -1.114419    0.821954
     54          1           0        4.141030    0.069157   -1.593532
     55          1           0        3.121014   -1.356639   -1.605932
     56          1           0        5.452433   -1.957251   -1.652271
     57          1           0        4.327321   -2.754327    1.088861
     58          1           0        5.551502   -3.618037    0.153992
     59          1           0        3.890815   -3.509696   -0.453244
     60          1           0        6.437301    0.016023   -0.473388
     61          1           0        5.849633   -0.610798    1.076364
     62          1           0        7.057983   -1.516795    0.160670
     63          1           0       -3.806695   -1.974077   -2.307699
     64          1           0       -3.151488   -3.199064   -1.212365
     65          1           0       -4.895486   -2.911224   -1.271487
     66          1           0       -3.552461   -2.919467    1.328385
     67          1           0       -5.209492   -2.348638    1.116953
     68          1           0       -4.042238   -1.353855    1.993483
 ---------------------------------------------------------------------

 SCF Done:  E(RB3LYP) =  -941.336697661     A.U. after   13 cycles

 The electronic state is 1-A.
 Alpha  occ. eigenvalues --  -10.17928 -10.17888 -10.17777 -10.17127 -10.16717
 Alpha  occ. eigenvalues --  -10.16690 -10.16592 -10.16502 -10.16059 -10.15957
 Alpha  occ. eigenvalues --  -10.15842 -10.15825 -10.15822 -10.15806 -10.15783
 Alpha  occ. eigenvalues --  -10.15745 -10.15661 -10.15515 -10.15511 -10.15412
 Alpha  occ. eigenvalues --  -10.15371 -10.15205 -10.15142 -10.15120  -0.86084
 Alpha  occ. eigenvalues --   -0.83618  -0.80869  -0.79469  -0.78852  -0.76196
 Alpha  occ. eigenvalues --   -0.74902  -0.73527  -0.71571  -0.68589  -0.68177
 Alpha  occ. eigenvalues --   -0.67923  -0.67233  -0.66874  -0.66646  -0.63035
 Alpha  occ. eigenvalues --   -0.61270  -0.58961  -0.58718  -0.55659  -0.54551
 Alpha  occ. eigenvalues --   -0.54297  -0.52312  -0.50464  -0.47812  -0.47179
 Alpha  occ. eigenvalues --   -0.46582  -0.46198  -0.45887  -0.45466  -0.44866
 Alpha  occ. eigenvalues --   -0.44174  -0.42890  -0.42651  -0.42134  -0.42059
 Alpha  occ. eigenvalues --   -0.41910  -0.41009  -0.40039  -0.39565  -0.39255
 Alpha  occ. eigenvalues --   -0.39080  -0.38713  -0.38227  -0.37805  -0.37447
 Alpha  occ. eigenvalues --   -0.37248  -0.36980  -0.36594  -0.36297  -0.35564
 Alpha  occ. eigenvalues --   -0.35042  -0.34756  -0.34148  -0.33716  -0.33669
 Alpha  occ. eigenvalues --   -0.33367  -0.33260  -0.32712  -0.32403  -0.32225
 Alpha  occ. eigenvalues --   -0.31806  -0.31406  -0.30877  -0.30422  -0.29999
 Alpha  occ. eigenvalues --   -0.29254  -0.29175  -0.26618  -0.26539
 Alpha virt. eigenvalues --   -0.00480   0.00142   0.00348   0.00532   0.01422
 Alpha virt. eigenvalues --    0.01708   0.01765   0.02390   0.02648   0.03113
 Alpha virt. eigenvalues --    0.03371   0.03714   0.04107   0.04406   0.05041

 Mulliken charges:
               1
     1  C   -0.423241
     2  C   -0.394269
     3  C    0.586113
     4  C    0.084010
     5  C    0.406650
     6  C   -0.239129
     7  C   -0.492045
     8  C    0.384337
     9  C   -0.291500
    10  C   -0.671886
    11  C    0.459255
    12  C   -0.638838
    13  C    0.283964
    14  C   -0.016761
    15  C   -0.353681
    16  C   -0.732932
    17  C   -0.432066
    18  C   -0.195148
    19  C   -0.535554
    20  C    0.299453
    21  C   -0.491964
    22  C   -0.512427
    23  C   -0.527397
    24  C   -0.509566
    25  H    0.104789
    26  H    0.109997
    27  H    0.098695
    28  H    0.097768
    29  H    0.054909
    30  H    0.113247
    31  H    0.117002
    32  H    0.135805
    33  H    0.129661
    34  H    0.136862
    35  H    0.075228
    36  H    0.107243
    37  H    0.123734
    38  H    0.104414
    39  H    0.108816
    40  H    0.073526
    41  H    0.127262
    42  H    0.118233
    43  H    0.133392
    44  H    0.069178
    45  H    0.121575
    46  H    0.115280
    47  H    0.118289
    48  H    0.114600
    49  H    0.131822
    50  H    0.122102
    51  H    0.147542
    52  H    0.105954
    53  H    0.081097
    54  H    0.121101
    55  H    0.110381
    56  H    0.066465
    57  H    0.118862
    58  H    0.118255
    59  H    0.120217
    60  H    0.120463
    61  H    0.120778
    62  H    0.117661
    63  H    0.121412
    64  H    0.118614
    65  H    0.120712
    66  H    0.127542
    67  H    0.125508
    68  H    0.128628
 Sum of Mulliken charges =  -0.00000

 Dipole moment (field-independent basis, Debye):
    X=              0.0035    Y=              0.0637    Z=             -0.1313  Tot=              0.1460
 Quadrupole moment (field-independent basis, Debye-Ang):
   XX=           -161.2243   YY=           -160.4492   ZZ=           -160.1379
   XY=             -1.1601   XZ=              0.1218   YZ=              0.7159

 Summary of Natural Population Analysis:

                                       Natural Population
                Natural  -----------------------------------------------
    Atom  No    Charge         Core      Valence    Rydberg      Total
 -----------------------------------------------------------------------
      C    1   -0.38154      1.99928     4.36621    0.01605     6.38154
      C    2   -0.37391      1.99921     4.35680    0.01790     6.37391
      C    3   -0.07723      1.99916     4.05485    0.02322     6.07723
      C    4   -0.20716      1.99907     4.17783    0.03026     6.20716
      C    5   -0.06155      1.99910     4.03495    0.02750     6.06155
      C    6   -0.36977      1.99923     4.35226    0.01829     6.36977
      C    7   -0.57884      1.99928     4.56611    0.01345     6.57884
      C    8   -0.20299      1.99908     4.17225    0.03166     6.20299
      C    9   -0.38431      1.99923     4.36846    0.01662     6.38431
      C   10   -0.36627      1.99925     4.35010    0.01691     6.36627
      C   11   -0.21872      1.99918     4.20206    0.01748     6.21872
      C   12   -0.56774      1.99934     4.55611    0.01229     6.56774
      C   13   -0.20168      1.99912     4.17737    0.02519     6.20168
      C   14   -0.05584      1.99910     4.02849    0.02825     6.05584
      C   15   -0.37236      1.99921     4.35440    0.01876     6.37236
      C   16   -0.38100      1.99924     4.36468    0.01708     6.38100
      C   17   -0.58268      1.99928     4.56972    0.01369     6.58268
      C   18   -0.39555      1.99924     4.37904    0.01727     6.39555
      C   19   -0.36808      1.99926     4.35297    0.01586     6.36808
      C   20   -0.22540      1.99927     4.21017    0.01596     6.22540
      C   21   -0.57191      1.99934     4.56084    0.01173     6.57191
      C   22   -0.57184      1.99934     4.56050    0.01200     6.57184
      C   23   -0.56601      1.99929     4.55279    0.01393     6.56601
      C   24   -0.57288      1.99929     4.56011    0.01349     6.57288
      H   25    0.18803      0.00000     0.81036    0.00162     0.81197
      H   26    0.20194      0.00000     0.79609    0.00198     0.79806
      H   27    0.20107      0.00000     0.79740    0.00153     0.79893
      H   28    0.19237      0.00000     0.80617    0.00147     0.80763
      H   29    0.19614      0.00000     0.80197    0.00189     0.80386
      H   30    0.19834      0.00000     0.80021    0.00145     0.80166
      H   31    0.19529      0.00000     0.80324    0.00147     0.80471
      H   32    0.19670      0.00000     0.80178    0.00152     0.80330
      H   33    0.19890      0.00000     0.79963    0.00147     0.80110
      H   34    0.20258      0.00000     0.79599    0.00143     0.79742
      H   35    0.19560      0.00000     0.80255    0.00185     0.80440
      H   36    0.19174      0.00000     0.80648    0.00178     0.80826
      H   37    0.20559      0.00000     0.79271    0.00170     0.79441
      H   38    0.18663      0.00000     0.81154    0.00183     0.81337
      H   39    0.19829      0.00000     0.79999    0.00172     0.80171
      H   40    0.18924      0.00000     0.80845    0.00231     0.81076
      H   41    0.19259      0.00000     0.80580    0.00162     0.80741
      H   42    0.19979      0.00000     0.79881    0.00140     0.80021
      H   43    0.20011      0.00000     0.79861    0.00128     0.79989
      H   44    0.19331      0.00000     0.80479    0.00190     0.80669
      H   45    0.19360      0.00000     0.80477    0.00162     0.80640
      H   46    0.20106      0.00000     0.79730    0.00164     0.79894
      H   47    0.19412      0.00000     0.80410    0.00177     0.80588
      H   48    0.20220      0.00000     0.79592    0.00189     0.79780
      H   49    0.20229      0.00000     0.79632    0.00139     0.79771
      H   50    0.19876      0.00000     0.79973    0.00151     0.80124
      H   51    0.20017      0.00000     0.79826    0.00157     0.79983
      H   52    0.19511      0.00000     0.80309    0.00179     0.80489
      H   53    0.19908      0.00000     0.79907    0.00185     0.80092
      H   54    0.19532      0.00000     0.80315    0.00154     0.80468
      H   55    0.19232      0.00000     0.80618    0.00150     0.80768
      H   56    0.18512      0.00000     0.81181    0.00308     0.81488
      H   57    0.19233      0.00000     0.80624    0.00143     0.80767
      H   58    0.19886      0.00000     0.80001    0.00113     0.80114
      H   59    0.19777      0.00000     0.80108    0.00115     0.80223
      H   60    0.19742      0.00000     0.80136    0.00122     0.80258
      H   61    0.19233      0.00000     0.80621    0.00147     0.80767
      H   62    0.19875      0.00000     0.80012    0.00113     0.80125
      H   63    0.19680      0.00000     0.80180    0.00140     0.80320
      H   64    0.19714      0.00000     0.80134    0.00152     0.80286
      H   65    0.19877      0.00000     0.79987    0.00137     0.80123
      H   66    0.19988      0.00000     0.79881    0.00131     0.80012
      H   67    0.20008      0.00000     0.79862    0.00130     0.79992
      H   68    0.20176      0.00000     0.79700    0.00124     0.79824
 =======================================================================
   * Total *   -0.00000     47.98139   139.50376    0.51485   188.00000

 Normal termination of Gaussian 16 at Tue Oct 14 17:44:30 2025.
